<?xml version="1.0"?>
<VTKFile type="UnstructuredGrid"  version="0.1"  >
<UnstructuredGrid>
<Piece  NumberOfPoints="145" NumberOfCells="256">
<Points>
<DataArray  type="Float64"  NumberOfComponents="3"  format="ascii">0 0 0  0.125 0 0  0.25 0 0  0.375 0 0  0.5 0 0  0.625 0 0  0.75 0 0  0.875 0 0  1 0 0  0 0.125 0  0.125 0.125 0  0.25 0.125 0  0.375 0.125 0  0.5 0.125 0  0.625 0.125 0  0.75 0.125 0  0.875 0.125 0  1 0.125 0  0 0.25 0  0.125 0.25 0  0.25 0.25 0  0.375 0.25 0  0.5 0.25 0  0.625 0.25 0  0.75 0.25 0  0.875 0.25 0  1 0.25 0  0 0.375 0  0.125 0.375 0  0.25 0.375 0  0.375 0.375 0  0.5 0.375 0  0.625 0.375 0  0.75 0.375 0  0.875 0.375 0  1 0.375 0  0 0.5 0  0.125 0.5 0  0.25 0.5 0  0.375 0.5 0  0.5 0.5 0  0.625 0.5 0  0.75 0.5 0  0.875 0.5 0  1 0.5 0  0 0.625 0  0.125 0.625 0  0.25 0.625 0  0.375 0.625 0  0.5 0.625 0  0.625 0.625 0  0.75 0.625 0  0.875 0.625 0  1 0.625 0  0 0.75 0  0.125 0.75 0  0.25 0.75 0  0.375 0.75 0  0.5 0.75 0  0.625 0.75 0  0.75 0.75 0  0.875 0.75 0  1 0.75 0  0 0.875 0  0.125 0.875 0  0.25 0.875 0  0.375 0.875 0  0.5 0.875 0  0.625 0.875 0  0.75 0.875 0  0.875 0.875 0  1 0.875 0  0 1 0  0.125 1 0  0.25 1 0  0.375 1 0  0.5 1 0  0.625 1 0  0.75 1 0  0.875 1 0  1 1 0  0.0625 0.0625 0  0.1875 0.0625 0  0.3125 0.0625 0  0.4375 0.0625 0  0.5625 0.0625 0  0.6875 0.0625 0  0.8125 0.0625 0  0.9375 0.0625 0  0.0625 0.1875 0  0.1875 0.1875 0  0.3125 0.1875 0  0.4375 0.1875 0  0.5625 0.1875 0  0.6875 0.1875 0  0.8125 0.1875 0  0.9375 0.1875 0  0.0625 0.3125 0  0.1875 0.3125 0  0.3125 0.3125 0  0.4375 0.3125 0  0.5625 0.3125 0  0.6875 0.3125 0  0.8125 0.3125 0  0.9375 0.3125 0  0.0625 0.4375 0  0.1875 0.4375 0  0.3125 0.4375 0  0.4375 0.4375 0  0.5625 0.4375 0  0.6875 0.4375 0  0.8125 0.4375 0  0.9375 0.4375 0  0.0625 0.5625 0  0.1875 0.5625 0  0.3125 0.5625 0  0.4375 0.5625 0  0.5625 0.5625 0  0.6875 0.5625 0  0.8125 0.5625 0  0.9375 0.5625 0  0.0625 0.6875 0  0.1875 0.6875 0  0.3125 0.6875 0  0.4375 0.6875 0  0.5625 0.6875 0  0.6875 0.6875 0  0.8125 0.6875 0  0.9375 0.6875 0  0.0625 0.8125 0  0.1875 0.8125 0  0.3125 0.8125 0  0.4375 0.8125 0  0.5625 0.8125 0  0.6875 0.8125 0  0.8125 0.8125 0  0.9375 0.8125 0  0.0625 0.9375 0  0.1875 0.9375 0  0.3125 0.9375 0  0.4375 0.9375 0  0.5625 0.9375 0  0.6875 0.9375 0  0.8125 0.9375 0  0.9375 0.9375 0  </DataArray>
</Points>
<Cells>
<DataArray  type="UInt32"  Name="connectivity"  format="ascii">0 1 81  0 9 81  1 10 81  9 10 81  1 2 82  1 10 82  2 11 82  10 11 82  2 3 83  2 11 83  3 12 83  11 12 83  3 4 84  3 12 84  4 13 84  12 13 84  4 5 85  4 13 85  5 14 85  13 14 85  5 6 86  5 14 86  6 15 86  14 15 86  6 7 87  6 15 87  7 16 87  15 16 87  7 8 88  7 16 88  8 17 88  16 17 88  9 10 89  9 18 89  10 19 89  18 19 89  10 11 90  10 19 90  11 20 90  19 20 90  11 12 91  11 20 91  12 21 91  20 21 91  12 13 92  12 21 92  13 22 92  21 22 92  13 14 93  13 22 93  14 23 93  22 23 93  14 15 94  14 23 94  15 24 94  23 24 94  15 16 95  15 24 95  16 25 95  24 25 95  16 17 96  16 25 96  17 26 96  25 26 96  18 19 97  18 27 97  19 28 97  27 28 97  19 20 98  19 28 98  20 29 98  28 29 98  20 21 99  20 29 99  21 30 99  29 30 99  21 22 100  21 30 100  22 31 100  30 31 100  22 23 101  22 31 101  23 32 101  31 32 101  23 24 102  23 32 102  24 33 102  32 33 102  24 25 103  24 33 103  25 34 103  33 34 103  25 26 104  25 34 104  26 35 104  34 35 104  27 28 105  27 36 105  28 37 105  36 37 105  28 29 106  28 37 106  29 38 106  37 38 106  29 30 107  29 38 107  30 39 107  38 39 107  30 31 108  30 39 108  31 40 108  39 40 108  31 32 109  31 40 109  32 41 109  40 41 109  32 33 110  32 41 110  33 42 110  41 42 110  33 34 111  33 42 111  34 43 111  42 43 111  34 35 112  34 43 112  35 44 112  43 44 112  36 37 113  36 45 113  37 46 113  45 46 113  37 38 114  37 46 114  38 47 114  46 47 114  38 39 115  38 47 115  39 48 115  47 48 115  39 40 116  39 48 116  40 49 116  48 49 116  40 41 117  40 49 117  41 50 117  49 50 117  41 42 118  41 50 118  42 51 118  50 51 118  42 43 119  42 51 119  43 52 119  51 52 119  43 44 120  43 52 120  44 53 120  52 53 120  45 46 121  45 54 121  46 55 121  54 55 121  46 47 122  46 55 122  47 56 122  55 56 122  47 48 123  47 56 123  48 57 123  56 57 123  48 49 124  48 57 124  49 58 124  57 58 124  49 50 125  49 58 125  50 59 125  58 59 125  50 51 126  50 59 126  51 60 126  59 60 126  51 52 127  51 60 127  52 61 127  60 61 127  52 53 128  52 61 128  53 62 128  61 62 128  54 55 129  54 63 129  55 64 129  63 64 129  55 56 130  55 64 130  56 65 130  64 65 130  56 57 131  56 65 131  57 66 131  65 66 131  57 58 132  57 66 132  58 67 132  66 67 132  58 59 133  58 67 133  59 68 133  67 68 133  59 60 134  59 68 134  60 69 134  68 69 134  60 61 135  60 69 135  61 70 135  69 70 135  61 62 136  61 70 136  62 71 136  70 71 136  63 64 137  63 72 137  64 73 137  72 73 137  64 65 138  64 73 138  65 74 138  73 74 138  65 66 139  65 74 139  66 75 139  74 75 139  66 67 140  66 75 140  67 76 140  75 76 140  67 68 141  67 76 141  68 77 141  76 77 141  68 69 142  68 77 142  69 78 142  77 78 142  69 70 143  69 78 143  70 79 143  78 79 143  70 71 144  70 79 144  71 80 144  79 80 144  </DataArray>
<DataArray  type="UInt32"  Name="offsets"  format="ascii">3 6 9 12 15 18 21 24 27 30 33 36 39 42 45 48 51 54 57 60 63 66 69 72 75 78 81 84 87 90 93 96 99 102 105 108 111 114 117 120 123 126 129 132 135 138 141 144 147 150 153 156 159 162 165 168 171 174 177 180 183 186 189 192 195 198 201 204 207 210 213 216 219 222 225 228 231 234 237 240 243 246 249 252 255 258 261 264 267 270 273 276 279 282 285 288 291 294 297 300 303 306 309 312 315 318 321 324 327 330 333 336 339 342 345 348 351 354 357 360 363 366 369 372 375 378 381 384 387 390 393 396 399 402 405 408 411 414 417 420 423 426 429 432 435 438 441 444 447 450 453 456 459 462 465 468 471 474 477 480 483 486 489 492 495 498 501 504 507 510 513 516 519 522 525 528 531 534 537 540 543 546 549 552 555 558 561 564 567 570 573 576 579 582 585 588 591 594 597 600 603 606 609 612 615 618 621 624 627 630 633 636 639 642 645 648 651 654 657 660 663 666 669 672 675 678 681 684 687 690 693 696 699 702 705 708 711 714 717 720 723 726 729 732 735 738 741 744 747 750 753 756 759 762 765 768 </DataArray>
<DataArray  type="UInt8"  Name="types"  format="ascii">5 5 5 5 5 5 5 5 5 5 5 5 5 5 5 5 5 5 5 5 5 5 5 5 5 5 5 5 5 5 5 5 5 5 5 5 5 5 5 5 5 5 5 5 5 5 5 5 5 5 5 5 5 5 5 5 5 5 5 5 5 5 5 5 5 5 5 5 5 5 5 5 5 5 5 5 5 5 5 5 5 5 5 5 5 5 5 5 5 5 5 5 5 5 5 5 5 5 5 5 5 5 5 5 5 5 5 5 5 5 5 5 5 5 5 5 5 5 5 5 5 5 5 5 5 5 5 5 5 5 5 5 5 5 5 5 5 5 5 5 5 5 5 5 5 5 5 5 5 5 5 5 5 5 5 5 5 5 5 5 5 5 5 5 5 5 5 5 5 5 5 5 5 5 5 5 5 5 5 5 5 5 5 5 5 5 5 5 5 5 5 5 5 5 5 5 5 5 5 5 5 5 5 5 5 5 5 5 5 5 5 5 5 5 5 5 5 5 5 5 5 5 5 5 5 5 5 5 5 5 5 5 5 5 5 5 5 5 5 5 5 5 5 5 5 5 5 5 5 5 5 5 5 5 5 5 </DataArray>
</Cells>
<PointData  Scalars="f_227-1"> 
<DataArray  type="Float64"  Name="f_227-1"  format="ascii">4.9687499999999629e-01  3.8749999999999774e-01  3.0937499999999668e-01  2.6249999999999596e-01  2.4687499999999554e-01  2.6249999999999574e-01  3.0937499999999629e-01  3.8749999999999751e-01  4.9687499999999613e-01  3.8749999999999801e-01  2.7812500000000051e-01  1.9999999999999751e-01  1.5312499999999649e-01  1.3749999999999629e-01  1.5312499999999624e-01  1.9999999999999729e-01  2.7812499999999940e-01  3.8749999999999785e-01  3.0937499999999851e-01  1.9999999999999965e-01  1.2187499999999800e-01  7.4999999999996694e-02  5.9374999999996618e-02  7.4999999999996902e-02  1.2187499999999751e-01  1.9999999999999968e-01  3.0937499999999829e-01  2.6249999999999862e-01  1.5312499999999937e-01  7.4999999999998096e-02  2.8124999999997707e-02  1.2499999999997326e-02  2.8124999999997537e-02  7.4999999999998124e-02  1.5312499999999962e-01  2.6249999999999846e-01  2.4687499999999854e-01  1.3750000000000032e-01  5.9374999999998873e-02  1.2499999999998132e-02  -3.1250000000020940e-03  1.2499999999998148e-02  5.9374999999998887e-02  1.3749999999999998e-01  2.4687499999999846e-01  2.6249999999999818e-01  1.5312500000000007e-01  7.4999999999999623e-02  2.8124999999999154e-02  1.2499999999998825e-02  2.8124999999998956e-02  7.4999999999999650e-02  1.5312500000000034e-01  2.6249999999999807e-01  3.0937499999999790e-01  2.0000000000000084e-01  1.2187500000000102e-01  7.5000000000000483e-02  5.9375000000000226e-02  7.5000000000000386e-02  1.2187500000000091e-01  2.0000000000000118e-01  3.0937499999999779e-01  3.8749999999999657e-01  2.7812500000000234e-01  2.0000000000000245e-01  1.5312500000000207e-01  1.3750000000000204e-01  1.5312500000000207e-01  2.0000000000000212e-01  2.7812500000000223e-01  3.8749999999999662e-01  4.9687500000000556e-01  3.8750000000000384e-01  3.0937500000000340e-01  2.6250000000000301e-01  2.4687500000000315e-01  2.6250000000000323e-01  3.0937500000000384e-01  3.8750000000000417e-01  4.9687500000000884e-01  3.8124999999999626e-01  2.8749999999999470e-01  2.2499999999999457e-01  1.9374999999999426e-01  1.9374999999999437e-01  2.2499999999999443e-01  2.8749999999999470e-01  3.8124999999999665e-01  2.8749999999999754e-01  1.9374999999999659e-01  1.3124999999999615e-01  9.9999999999995565e-02  9.9999999999995384e-02  1.3124999999999565e-01  1.9374999999999618e-01  2.8749999999999815e-01  2.2499999999999828e-01  1.3124999999999726e-01  6.8749999999997036e-02  3.7499999999996543e-02  3.7499999999996474e-02  6.8749999999996578e-02  1.3124999999999706e-01  2.2499999999999809e-01  1.9374999999999845e-01  9.9999999999997660e-02  3.7499999999997279e-02  6.2499999999976160e-03  6.2499999999975978e-03  3.7499999999997577e-02  9.9999999999997619e-02  1.9374999999999853e-01  1.9374999999999862e-01  9.9999999999998007e-02  3.7499999999998194e-02  6.2499999999981355e-03  6.2499999999980843e-03  3.7499999999997938e-02  9.9999999999997924e-02  1.9374999999999840e-01  2.2499999999999856e-01  1.3124999999999817e-01  6.8749999999998659e-02  3.7499999999998750e-02  3.7499999999998639e-02  6.8749999999998507e-02  1.3124999999999834e-01  2.2499999999999834e-01  2.8749999999999853e-01  1.9374999999999851e-01  1.3124999999999945e-01  9.9999999999999478e-02  9.9999999999999326e-02  1.3124999999999878e-01  1.9374999999999848e-01  2.8749999999999792e-01  3.8124999999999798e-01  2.8749999999999887e-01  2.2499999999999948e-01  1.9374999999999964e-01  1.9374999999999962e-01  2.2499999999999951e-01  2.8749999999999903e-01  3.8124999999999803e-01  </DataArray> 
</PointData> 
</Piece>
</UnstructuredGrid>
</VTKFile>