<?xml version="1.0"?>
<VTKFile type="UnstructuredGrid"  version="0.1"  >
<UnstructuredGrid>
<Piece  NumberOfPoints="545" NumberOfCells="1024">
<Points>
<DataArray  type="Float64"  NumberOfComponents="3"  format="ascii">0 0 0  0.0625 0 0  0.125 0 0  0.1875 0 0  0.25 0 0  0.3125 0 0  0.375 0 0  0.4375 0 0  0.5 0 0  0.5625 0 0  0.625 0 0  0.6875 0 0  0.75 0 0  0.8125 0 0  0.875 0 0  0.9375 0 0  1 0 0  0 0.0625 0  0.0625 0.0625 0  0.125 0.0625 0  0.1875 0.0625 0  0.25 0.0625 0  0.3125 0.0625 0  0.375 0.0625 0  0.4375 0.0625 0  0.5 0.0625 0  0.5625 0.0625 0  0.625 0.0625 0  0.6875 0.0625 0  0.75 0.0625 0  0.8125 0.0625 0  0.875 0.0625 0  0.9375 0.0625 0  1 0.0625 0  0 0.125 0  0.0625 0.125 0  0.125 0.125 0  0.1875 0.125 0  0.25 0.125 0  0.3125 0.125 0  0.375 0.125 0  0.4375 0.125 0  0.5 0.125 0  0.5625 0.125 0  0.625 0.125 0  0.6875 0.125 0  0.75 0.125 0  0.8125 0.125 0  0.875 0.125 0  0.9375 0.125 0  1 0.125 0  0 0.1875 0  0.0625 0.1875 0  0.125 0.1875 0  0.1875 0.1875 0  0.25 0.1875 0  0.3125 0.1875 0  0.375 0.1875 0  0.4375 0.1875 0  0.5 0.1875 0  0.5625 0.1875 0  0.625 0.1875 0  0.6875 0.1875 0  0.75 0.1875 0  0.8125 0.1875 0  0.875 0.1875 0  0.9375 0.1875 0  1 0.1875 0  0 0.25 0  0.0625 0.25 0  0.125 0.25 0  0.1875 0.25 0  0.25 0.25 0  0.3125 0.25 0  0.375 0.25 0  0.4375 0.25 0  0.5 0.25 0  0.5625 0.25 0  0.625 0.25 0  0.6875 0.25 0  0.75 0.25 0  0.8125 0.25 0  0.875 0.25 0  0.9375 0.25 0  1 0.25 0  0 0.3125 0  0.0625 0.3125 0  0.125 0.3125 0  0.1875 0.3125 0  0.25 0.3125 0  0.3125 0.3125 0  0.375 0.3125 0  0.4375 0.3125 0  0.5 0.3125 0  0.5625 0.3125 0  0.625 0.3125 0  0.6875 0.3125 0  0.75 0.3125 0  0.8125 0.3125 0  0.875 0.3125 0  0.9375 0.3125 0  1 0.3125 0  0 0.375 0  0.0625 0.375 0  0.125 0.375 0  0.1875 0.375 0  0.25 0.375 0  0.3125 0.375 0  0.375 0.375 0  0.4375 0.375 0  0.5 0.375 0  0.5625 0.375 0  0.625 0.375 0  0.6875 0.375 0  0.75 0.375 0  0.8125 0.375 0  0.875 0.375 0  0.9375 0.375 0  1 0.375 0  0 0.4375 0  0.0625 0.4375 0  0.125 0.4375 0  0.1875 0.4375 0  0.25 0.4375 0  0.3125 0.4375 0  0.375 0.4375 0  0.4375 0.4375 0  0.5 0.4375 0  0.5625 0.4375 0  0.625 0.4375 0  0.6875 0.4375 0  0.75 0.4375 0  0.8125 0.4375 0  0.875 0.4375 0  0.9375 0.4375 0  1 0.4375 0  0 0.5 0  0.0625 0.5 0  0.125 0.5 0  0.1875 0.5 0  0.25 0.5 0  0.3125 0.5 0  0.375 0.5 0  0.4375 0.5 0  0.5 0.5 0  0.5625 0.5 0  0.625 0.5 0  0.6875 0.5 0  0.75 0.5 0  0.8125 0.5 0  0.875 0.5 0  0.9375 0.5 0  1 0.5 0  0 0.5625 0  0.0625 0.5625 0  0.125 0.5625 0  0.1875 0.5625 0  0.25 0.5625 0  0.3125 0.5625 0  0.375 0.5625 0  0.4375 0.5625 0  0.5 0.5625 0  0.5625 0.5625 0  0.625 0.5625 0  0.6875 0.5625 0  0.75 0.5625 0  0.8125 0.5625 0  0.875 0.5625 0  0.9375 0.5625 0  1 0.5625 0  0 0.625 0  0.0625 0.625 0  0.125 0.625 0  0.1875 0.625 0  0.25 0.625 0  0.3125 0.625 0  0.375 0.625 0  0.4375 0.625 0  0.5 0.625 0  0.5625 0.625 0  0.625 0.625 0  0.6875 0.625 0  0.75 0.625 0  0.8125 0.625 0  0.875 0.625 0  0.9375 0.625 0  1 0.625 0  0 0.6875 0  0.0625 0.6875 0  0.125 0.6875 0  0.1875 0.6875 0  0.25 0.6875 0  0.3125 0.6875 0  0.375 0.6875 0  0.4375 0.6875 0  0.5 0.6875 0  0.5625 0.6875 0  0.625 0.6875 0  0.6875 0.6875 0  0.75 0.6875 0  0.8125 0.6875 0  0.875 0.6875 0  0.9375 0.6875 0  1 0.6875 0  0 0.75 0  0.0625 0.75 0  0.125 0.75 0  0.1875 0.75 0  0.25 0.75 0  0.3125 0.75 0  0.375 0.75 0  0.4375 0.75 0  0.5 0.75 0  0.5625 0.75 0  0.625 0.75 0  0.6875 0.75 0  0.75 0.75 0  0.8125 0.75 0  0.875 0.75 0  0.9375 0.75 0  1 0.75 0  0 0.8125 0  0.0625 0.8125 0  0.125 0.8125 0  0.1875 0.8125 0  0.25 0.8125 0  0.3125 0.8125 0  0.375 0.8125 0  0.4375 0.8125 0  0.5 0.8125 0  0.5625 0.8125 0  0.625 0.8125 0  0.6875 0.8125 0  0.75 0.8125 0  0.8125 0.8125 0  0.875 0.8125 0  0.9375 0.8125 0  1 0.8125 0  0 0.875 0  0.0625 0.875 0  0.125 0.875 0  0.1875 0.875 0  0.25 0.875 0  0.3125 0.875 0  0.375 0.875 0  0.4375 0.875 0  0.5 0.875 0  0.5625 0.875 0  0.625 0.875 0  0.6875 0.875 0  0.75 0.875 0  0.8125 0.875 0  0.875 0.875 0  0.9375 0.875 0  1 0.875 0  0 0.9375 0  0.0625 0.9375 0  0.125 0.9375 0  0.1875 0.9375 0  0.25 0.9375 0  0.3125 0.9375 0  0.375 0.9375 0  0.4375 0.9375 0  0.5 0.9375 0  0.5625 0.9375 0  0.625 0.9375 0  0.6875 0.9375 0  0.75 0.9375 0  0.8125 0.9375 0  0.875 0.9375 0  0.9375 0.9375 0  1 0.9375 0  0 1 0  0.0625 1 0  0.125 1 0  0.1875 1 0  0.25 1 0  0.3125 1 0  0.375 1 0  0.4375 1 0  0.5 1 0  0.5625 1 0  0.625 1 0  0.6875 1 0  0.75 1 0  0.8125 1 0  0.875 1 0  0.9375 1 0  1 1 0  0.03125 0.03125 0  0.09375 0.03125 0  0.15625 0.03125 0  0.21875 0.03125 0  0.28125 0.03125 0  0.34375 0.03125 0  0.40625 0.03125 0  0.46875 0.03125 0  0.53125 0.03125 0  0.59375 0.03125 0  0.65625 0.03125 0  0.71875 0.03125 0  0.78125 0.03125 0  0.84375 0.03125 0  0.90625 0.03125 0  0.96875 0.03125 0  0.03125 0.09375 0  0.09375 0.09375 0  0.15625 0.09375 0  0.21875 0.09375 0  0.28125 0.09375 0  0.34375 0.09375 0  0.40625 0.09375 0  0.46875 0.09375 0  0.53125 0.09375 0  0.59375 0.09375 0  0.65625 0.09375 0  0.71875 0.09375 0  0.78125 0.09375 0  0.84375 0.09375 0  0.90625 0.09375 0  0.96875 0.09375 0  0.03125 0.15625 0  0.09375 0.15625 0  0.15625 0.15625 0  0.21875 0.15625 0  0.28125 0.15625 0  0.34375 0.15625 0  0.40625 0.15625 0  0.46875 0.15625 0  0.53125 0.15625 0  0.59375 0.15625 0  0.65625 0.15625 0  0.71875 0.15625 0  0.78125 0.15625 0  0.84375 0.15625 0  0.90625 0.15625 0  0.96875 0.15625 0  0.03125 0.21875 0  0.09375 0.21875 0  0.15625 0.21875 0  0.21875 0.21875 0  0.28125 0.21875 0  0.34375 0.21875 0  0.40625 0.21875 0  0.46875 0.21875 0  0.53125 0.21875 0  0.59375 0.21875 0  0.65625 0.21875 0  0.71875 0.21875 0  0.78125 0.21875 0  0.84375 0.21875 0  0.90625 0.21875 0  0.96875 0.21875 0  0.03125 0.28125 0  0.09375 0.28125 0  0.15625 0.28125 0  0.21875 0.28125 0  0.28125 0.28125 0  0.34375 0.28125 0  0.40625 0.28125 0  0.46875 0.28125 0  0.53125 0.28125 0  0.59375 0.28125 0  0.65625 0.28125 0  0.71875 0.28125 0  0.78125 0.28125 0  0.84375 0.28125 0  0.90625 0.28125 0  0.96875 0.28125 0  0.03125 0.34375 0  0.09375 0.34375 0  0.15625 0.34375 0  0.21875 0.34375 0  0.28125 0.34375 0  0.34375 0.34375 0  0.40625 0.34375 0  0.46875 0.34375 0  0.53125 0.34375 0  0.59375 0.34375 0  0.65625 0.34375 0  0.71875 0.34375 0  0.78125 0.34375 0  0.84375 0.34375 0  0.90625 0.34375 0  0.96875 0.34375 0  0.03125 0.40625 0  0.09375 0.40625 0  0.15625 0.40625 0  0.21875 0.40625 0  0.28125 0.40625 0  0.34375 0.40625 0  0.40625 0.40625 0  0.46875 0.40625 0  0.53125 0.40625 0  0.59375 0.40625 0  0.65625 0.40625 0  0.71875 0.40625 0  0.78125 0.40625 0  0.84375 0.40625 0  0.90625 0.40625 0  0.96875 0.40625 0  0.03125 0.46875 0  0.09375 0.46875 0  0.15625 0.46875 0  0.21875 0.46875 0  0.28125 0.46875 0  0.34375 0.46875 0  0.40625 0.46875 0  0.46875 0.46875 0  0.53125 0.46875 0  0.59375 0.46875 0  0.65625 0.46875 0  0.71875 0.46875 0  0.78125 0.46875 0  0.84375 0.46875 0  0.90625 0.46875 0  0.96875 0.46875 0  0.03125 0.53125 0  0.09375 0.53125 0  0.15625 0.53125 0  0.21875 0.53125 0  0.28125 0.53125 0  0.34375 0.53125 0  0.40625 0.53125 0  0.46875 0.53125 0  0.53125 0.53125 0  0.59375 0.53125 0  0.65625 0.53125 0  0.71875 0.53125 0  0.78125 0.53125 0  0.84375 0.53125 0  0.90625 0.53125 0  0.96875 0.53125 0  0.03125 0.59375 0  0.09375 0.59375 0  0.15625 0.59375 0  0.21875 0.59375 0  0.28125 0.59375 0  0.34375 0.59375 0  0.40625 0.59375 0  0.46875 0.59375 0  0.53125 0.59375 0  0.59375 0.59375 0  0.65625 0.59375 0  0.71875 0.59375 0  0.78125 0.59375 0  0.84375 0.59375 0  0.90625 0.59375 0  0.96875 0.59375 0  0.03125 0.65625 0  0.09375 0.65625 0  0.15625 0.65625 0  0.21875 0.65625 0  0.28125 0.65625 0  0.34375 0.65625 0  0.40625 0.65625 0  0.46875 0.65625 0  0.53125 0.65625 0  0.59375 0.65625 0  0.65625 0.65625 0  0.71875 0.65625 0  0.78125 0.65625 0  0.84375 0.65625 0  0.90625 0.65625 0  0.96875 0.65625 0  0.03125 0.71875 0  0.09375 0.71875 0  0.15625 0.71875 0  0.21875 0.71875 0  0.28125 0.71875 0  0.34375 0.71875 0  0.40625 0.71875 0  0.46875 0.71875 0  0.53125 0.71875 0  0.59375 0.71875 0  0.65625 0.71875 0  0.71875 0.71875 0  0.78125 0.71875 0  0.84375 0.71875 0  0.90625 0.71875 0  0.96875 0.71875 0  0.03125 0.78125 0  0.09375 0.78125 0  0.15625 0.78125 0  0.21875 0.78125 0  0.28125 0.78125 0  0.34375 0.78125 0  0.40625 0.78125 0  0.46875 0.78125 0  0.53125 0.78125 0  0.59375 0.78125 0  0.65625 0.78125 0  0.71875 0.78125 0  0.78125 0.78125 0  0.84375 0.78125 0  0.90625 0.78125 0  0.96875 0.78125 0  0.03125 0.84375 0  0.09375 0.84375 0  0.15625 0.84375 0  0.21875 0.84375 0  0.28125 0.84375 0  0.34375 0.84375 0  0.40625 0.84375 0  0.46875 0.84375 0  0.53125 0.84375 0  0.59375 0.84375 0  0.65625 0.84375 0  0.71875 0.84375 0  0.78125 0.84375 0  0.84375 0.84375 0  0.90625 0.84375 0  0.96875 0.84375 0  0.03125 0.90625 0  0.09375 0.90625 0  0.15625 0.90625 0  0.21875 0.90625 0  0.28125 0.90625 0  0.34375 0.90625 0  0.40625 0.90625 0  0.46875 0.90625 0  0.53125 0.90625 0  0.59375 0.90625 0  0.65625 0.90625 0  0.71875 0.90625 0  0.78125 0.90625 0  0.84375 0.90625 0  0.90625 0.90625 0  0.96875 0.90625 0  0.03125 0.96875 0  0.09375 0.96875 0  0.15625 0.96875 0  0.21875 0.96875 0  0.28125 0.96875 0  0.34375 0.96875 0  0.40625 0.96875 0  0.46875 0.96875 0  0.53125 0.96875 0  0.59375 0.96875 0  0.65625 0.96875 0  0.71875 0.96875 0  0.78125 0.96875 0  0.84375 0.96875 0  0.90625 0.96875 0  0.96875 0.96875 0  </DataArray>
</Points>
<Cells>
[...]
<PointData  Scalars="f_193"> 
<DataArray  type="Float64"  Name="f_193"  format="ascii">7.7880078307140477e-01  8.2579709092381748e-01  8.6881514184153619e-01  9.0696073622975448e-01  9.3941321063392413e-01  9.6545472471837634e-01  9.8449662816650718e-01  9.9610157222882767e-01  1.0000002066949170e+00  9.9610157222882734e-01  9.8449662816650718e-01  9.6545472471837612e-01  9.3941321063392513e-01  9.0696073622975582e-01  8.6881514184153819e-01  8.2579709092381914e-01  7.7880078307140488e-01  7.7880078307140488e-01  8.2579709092381826e-01  8.6881514184153641e-01  9.0696073622975482e-01  9.3941321063392436e-01  9.6545472471837557e-01  9.8449662816650729e-01  9.9610157222882789e-01  1.0000002066949170e+00  9.9610157222882767e-01  9.8449662816650729e-01  9.6545472471837623e-01  9.3941321063392502e-01  9.0696073622975548e-01  8.6881514184153830e-01  8.2579709092381981e-01  7.7880078307140488e-01  7.7880078307140488e-01  8.2579709092381937e-01  8.6881514184153696e-01  9.0696073622975515e-01  9.3941321063392513e-01  9.6545472471837568e-01  9.8449662816650718e-01  9.9610157222882822e-01  1.0000002066949183e+00  9.9610157222882834e-01  9.8449662816650818e-01  9.6545472471837657e-01  9.3941321063392613e-01  9.0696073622975648e-01  8.6881514184153841e-01  8.2579709092382048e-01  7.7880078307140488e-01  7.7880078307140488e-01  8.2579709092381859e-01  8.6881514184153741e-01  9.0696073622975559e-01  9.3941321063392547e-01  9.6545472471837668e-01  9.8449662816650785e-01  9.9610157222882867e-01  1.0000002066949183e+00  9.9610157222882889e-01  9.8449662816650862e-01  9.6545472471837690e-01  9.3941321063392513e-01  9.0696073622975593e-01  8.6881514184153863e-01  8.2579709092381948e-01  7.7880078307140488e-01  7.7880078307140488e-01  8.2579709092381937e-01  8.6881514184153807e-01  9.0696073622975593e-01  9.3941321063392536e-01  9.6545472471837768e-01  9.8449662816650785e-01  9.9610157222882867e-01  1.0000002066949176e+00  9.9610157222882889e-01  9.8449662816650851e-01  9.6545472471837723e-01  9.3941321063392536e-01  9.0696073622975459e-01  8.6881514184153708e-01  8.2579709092381881e-01  7.7880078307140488e-01  7.7880078307140488e-01  8.2579709092382003e-01  8.6881514184153896e-01  9.0696073622975626e-01  9.3941321063392669e-01  9.6545472471837790e-01  9.8449662816650896e-01  9.9610157222882922e-01  1.0000002066949181e+00  9.9610157222882889e-01  9.8449662816650796e-01  9.6545472471837590e-01  9.3941321063392380e-01  9.0696073622975348e-01  8.6881514184153608e-01  8.2579709092381859e-01  7.7880078307140488e-01  7.7880078307140488e-01  8.2579709092382036e-01  8.6881514184153896e-01  9.0696073622975693e-01  9.3941321063392635e-01  9.6545472471837823e-01  9.8449662816650896e-01  9.9610157222882934e-01  1.0000002066949178e+00  9.9610157222882934e-01  9.8449662816650851e-01  9.6545472471837501e-01  9.3941321063392236e-01  9.0696073622975293e-01  8.6881514184153630e-01  8.2579709092381948e-01  7.7880078307140488e-01  7.7880078307140488e-01  8.2579709092381970e-01  8.6881514184153807e-01  9.0696073622975726e-01  9.3941321063392702e-01  9.6545472471837857e-01  9.8449662816650896e-01  9.9610157222882867e-01  1.0000002066949176e+00  9.9610157222882700e-01  9.8449662816650596e-01  9.6545472471837357e-01  9.3941321063392169e-01  9.0696073622975315e-01  8.6881514184153541e-01  8.2579709092381814e-01  7.7880078307140488e-01  7.7880078307140488e-01  8.2579709092382003e-01  8.6881514184153874e-01  9.0696073622975848e-01  9.3941321063392635e-01  9.6545472471837768e-01  9.8449662816650896e-01  9.9610157222882856e-01  1.0000002066949170e+00  9.9610157222882556e-01  9.8449662816650463e-01  9.6545472471837290e-01  9.3941321063392103e-01  9.0696073622975315e-01  8.6881514184153563e-01  8.2579709092381814e-01  7.7880078307140488e-01  7.7880078307140488e-01  8.2579709092382025e-01  8.6881514184153807e-01  9.0696073622975693e-01  9.3941321063392669e-01  9.6545472471837701e-01  9.8449662816650818e-01  9.9610157222882656e-01  1.0000002066949145e+00  9.9610157222882323e-01  9.8449662816650230e-01  9.6545472471837157e-01  9.3941321063392036e-01  9.0696073622975359e-01  8.6881514184153508e-01  8.2579709092381781e-01  7.7880078307140488e-01  7.7880078307140488e-01  8.2579709092381992e-01  8.6881514184153896e-01  9.0696073622975715e-01  9.3941321063392580e-01  9.6545472471837701e-01  9.8449662816650818e-01  9.9610157222882623e-01  1.0000002066949130e+00  9.9610157222882223e-01  9.8449662816650030e-01  9.6545472471837035e-01  9.3941321063392014e-01  9.0696073622975182e-01  8.6881514184153463e-01  8.2579709092381726e-01  7.7880078307140488e-01  7.7880078307140488e-01  8.2579709092381992e-01  8.6881514184153907e-01  9.0696073622975792e-01  9.3941321063392536e-01  9.6545472471837657e-01  9.8449662816650563e-01  9.9610157222882434e-01  1.0000002066949116e+00  9.9610157222882123e-01  9.8449662816649997e-01  9.6545472471836957e-01  9.3941321063391903e-01  9.0696073622975149e-01  8.6881514184153430e-01  8.2579709092381726e-01  7.7880078307140488e-01  7.7880078307140488e-01  8.2579709092381959e-01  8.6881514184153896e-01  9.0696073622975615e-01  9.3941321063392413e-01  9.6545472471837457e-01  9.8449662816650496e-01  9.9610157222882356e-01  1.0000002066949105e+00  9.9610157222881990e-01  9.8449662816649963e-01  9.6545472471836935e-01  9.3941321063391936e-01  9.0696073622975149e-01  8.6881514184153430e-01  8.2579709092381759e-01  7.7880078307140488e-01  7.7880078307140488e-01  8.2579709092381992e-01  8.6881514184153763e-01  9.0696073622975559e-01  9.3941321063392347e-01  9.6545472471837401e-01  9.8449662816650352e-01  9.9610157222882256e-01  1.0000002066949096e+00  9.9610157222881823e-01  9.8449662816649919e-01  9.6545472471836924e-01  9.3941321063391847e-01  9.0696073622975060e-01  8.6881514184153374e-01  8.2579709092381726e-01  7.7880078307140488e-01  7.7880078307140488e-01  8.2579709092381937e-01  8.6881514184153807e-01  9.0696073622975559e-01  9.3941321063392336e-01  9.6545472471837301e-01  9.8449662816650352e-01  9.9610157222882190e-01  1.0000002066949096e+00  9.9610157222882056e-01  9.8449662816650030e-01  9.6545472471837035e-01  9.3941321063391847e-01  9.0696073622975126e-01  8.6881514184153397e-01  8.2579709092381715e-01  7.7880078307140488e-01  7.7880078307140488e-01  8.2579709092381970e-01  8.6881514184153741e-01  9.0696073622975448e-01  9.3941321063392225e-01  9.6545472471837279e-01  9.8449662816650274e-01  9.9610157222882167e-01  1.0000002066949096e+00  9.9610157222882056e-01  9.8449662816650030e-01  9.6545472471836946e-01  9.3941321063391914e-01  9.0696073622975082e-01  8.6881514184153352e-01  8.2579709092381659e-01  7.7880078307140488e-01  7.7880078307140488e-01  8.2579709092381803e-01  8.6881514184153763e-01  9.0696073622975415e-01  9.3941321063392269e-01  9.6545472471837246e-01  9.8449662816650263e-01  9.9610157222882190e-01  1.0000002066949096e+00  9.9610157222882001e-01  9.8449662816650041e-01  9.6545472471836924e-01  9.3941321063391903e-01  9.0696073622975071e-01  8.6881514184153330e-01  8.2579709092381548e-01  7.7880078307140488e-01  8.0273825945533073e-01  8.4786056125957576e-01  8.8855022677176865e-01  9.2394603276769838e-01  9.5327521878703614e-01  9.7588148176367995e-01  9.9124937389025380e-01  9.9902383651216065e-01  9.9902383651216009e-01  9.9124937389025380e-01  9.7588148176367961e-01  9.5327521878703669e-01  9.2394603276769904e-01  8.8855022677176998e-01  8.4786056125957776e-01  8.0273825945533128e-01  8.0273825945533128e-01  8.4786056125957676e-01  8.8855022677176898e-01  9.2394603276769871e-01  9.5327521878703603e-01  9.7588148176367961e-01  9.9124937389025380e-01  9.9902383651216109e-01  9.9902383651216109e-01  9.9124937389025447e-01  9.7588148176367995e-01  9.5327521878703703e-01  9.2394603276769938e-01  8.8855022677177031e-01  8.4786056125957909e-01  8.0273825945533184e-01  8.0273825945533128e-01  8.4786056125957732e-01  8.8855022677176920e-01  9.2394603276769927e-01  9.5327521878703669e-01  9.7588148176368006e-01  9.9124937389025436e-01  9.9902383651216164e-01  9.9902383651216176e-01  9.9124937389025514e-01  9.7588148176368072e-01  9.5327521878703736e-01  9.2394603276769971e-01  8.8855022677177120e-01  8.4786056125957809e-01  8.0273825945533162e-01  8.0273825945533139e-01  8.4786056125957732e-01  8.8855022677176965e-01  9.2394603276769938e-01  9.5327521878703714e-01  9.7588148176368072e-01  9.9124937389025469e-01  9.9902383651216142e-01  9.9902383651216176e-01  9.9124937389025514e-01  9.7588148176368072e-01  9.5327521878703736e-01  9.2394603276769993e-01  8.8855022677176998e-01  8.4786056125957765e-01  8.0273825945533128e-01  8.0273825945533184e-01  8.4786056125957809e-01  8.8855022677177031e-01  9.2394603276770026e-01  9.5327521878703780e-01  9.7588148176368128e-01  9.9124937389025503e-01  9.9902383651216164e-01  9.9902383651216142e-01  9.9124937389025514e-01  9.7588148176368039e-01  9.5327521878703647e-01  9.2394603276769838e-01  8.8855022677176865e-01  8.4786056125957698e-01  8.0273825945533117e-01  8.0273825945533217e-01  8.4786056125957898e-01  8.8855022677177087e-01  9.2394603276770071e-01  9.5327521878703814e-01  9.7588148176368139e-01  9.9124937389025547e-01  9.9902383651216198e-01  9.9902383651216176e-01  9.9124937389025503e-01  9.7588148176368028e-01  9.5327521878703514e-01  9.2394603276769727e-01  8.8855022677176787e-01  8.4786056125957643e-01  8.0273825945533117e-01  8.0273825945533195e-01  8.4786056125957843e-01  8.8855022677177098e-01  9.2394603276770093e-01  9.5327521878703869e-01  9.7588148176368172e-01  9.9124937389025536e-01  9.9902383651216164e-01  9.9902383651216109e-01  9.9124937389025380e-01  9.7588148176367873e-01  9.5327521878703436e-01  9.2394603276769660e-01  8.8855022677176754e-01  8.4786056125957610e-01  8.0273825945533117e-01  8.0273825945533195e-01  8.4786056125957843e-01  8.8855022677177120e-01  9.2394603276770093e-01  9.5327521878703836e-01  9.7588148176368139e-01  9.9124937389025536e-01  9.9902383651216098e-01  9.9902383651216109e-01  9.9124937389025169e-01  9.7588148176367728e-01  9.5327521878703336e-01  9.2394603276769594e-01  8.8855022677176732e-01  8.4786056125957576e-01  8.0273825945533095e-01  8.0273825945533195e-01  8.4786056125957843e-01  8.8855022677177098e-01  9.2394603276770060e-01  9.5327521878703780e-01  9.7588148176368106e-01  9.9124937389025447e-01  9.9902383651215931e-01  9.9902383651215831e-01  9.9124937389025014e-01  9.7588148176367562e-01  9.5327521878703270e-01  9.2394603276769594e-01  8.8855022677176754e-01  8.4786056125957576e-01  8.0273825945533095e-01  8.0273825945533217e-01  8.4786056125957843e-01  8.8855022677177087e-01  9.2394603276770060e-01  9.5327521878703769e-01  9.7588148176368028e-01  9.9124937389025414e-01  9.9902383651215776e-01  9.9902383651215665e-01  9.9124937389024870e-01  9.7588148176367429e-01  9.5327521878703148e-01  9.2394603276769527e-01  8.8855022677176687e-01  8.4786056125957532e-01  8.0273825945533039e-01  8.0273825945533195e-01  8.4786056125957876e-01  8.8855022677177131e-01  9.2394603276770060e-01  9.5327521878703703e-01  9.7588148176367862e-01  9.9124937389025236e-01  9.9902383651215665e-01  9.9902383651215532e-01  9.9124937389024714e-01  9.7588148176367329e-01  9.5327521878703081e-01  9.2394603276769460e-01  8.8855022677176632e-01  8.4786056125957510e-01  8.0273825945533062e-01  8.0273825945533195e-01  8.4786056125957865e-01  8.8855022677177120e-01  9.2394603276769971e-01  9.5327521878703603e-01  9.7588148176367773e-01  9.9124937389025136e-01  9.9902383651215598e-01  9.9902383651215398e-01  9.9124937389024637e-01  9.7588148176367229e-01  9.5327521878703003e-01  9.2394603276769405e-01  8.8855022677176598e-01  8.4786056125957499e-01  8.0273825945533062e-01  8.0273825945533184e-01  8.4786056125957809e-01  8.8855022677177031e-01  9.2394603276769827e-01  9.5327521878703514e-01  9.7588148176367706e-01  9.9124937389025014e-01  9.9902383651215465e-01  9.9902383651215276e-01  9.9124937389024570e-01  9.7588148176367195e-01  9.5327521878702981e-01  9.2394603276769338e-01  8.8855022677176565e-01  8.4786056125957476e-01  8.0273825945533062e-01  8.0273825945533162e-01  8.4786056125957798e-01  8.8855022677177020e-01  9.2394603276769793e-01  9.5327521878703436e-01  9.7588148176367639e-01  9.9124937389024914e-01  9.9902383651215410e-01  9.9902383651215276e-01  9.9124937389024603e-01  9.7588148176367273e-01  9.5327521878702981e-01  9.2394603276769338e-01  8.8855022677176532e-01  8.4786056125957443e-01  8.0273825945533062e-01  8.0273825945533184e-01  8.4786056125957832e-01  8.8855022677176965e-01  9.2394603276769771e-01  9.5327521878703436e-01  9.7588148176367628e-01  9.9124937389024881e-01  9.9902383651215398e-01  9.9902383651215343e-01  9.9124937389024703e-01  9.7588148176367329e-01  9.5327521878703014e-01  9.2394603276769371e-01  8.8855022677176554e-01  8.4786056125957443e-01  8.0273825945533039e-01  8.0273825945533162e-01  8.4786056125957787e-01  8.8855022677176954e-01  9.2394603276769760e-01  9.5327521878703403e-01  9.7588148176367617e-01  9.9124937389024914e-01  9.9902383651215421e-01  9.9902383651215365e-01  9.9124937389024681e-01  9.7588148176367295e-01  9.5327521878703070e-01  9.2394603276769394e-01  8.8855022677176554e-01  8.4786056125957399e-01  8.0273825945532984e-01  </DataArray> 
</PointData> 
</Piece>
</UnstructuredGrid>
</VTKFile>