<?xml version="1.0"?>
<VTKFile type="UnstructuredGrid"  version="0.1"  >
<UnstructuredGrid>
<Piece  NumberOfPoints="1025" NumberOfCells="1024">
<Points>
<DataArray  type="Float64"  NumberOfComponents="3"  format="ascii">0 0 0  0.0009765625 0 0  0.001953125 0 0  0.0029296875 0 0  0.00390625 0 0  0.0048828125 0 0  0.005859375 0 0  0.0068359375 0 0  0.0078125 0 0  0.0087890625 0 0  0.009765625 0 0  0.0107421875 0 0  0.01171875 0 0  0.0126953125 0 0  0.013671875 0 0  0.0146484375 0 0  0.015625 0 0  0.0166015625 0 0  0.017578125 0 0  0.0185546875 0 0  0.01953125 0 0  0.0205078125 0 0  0.021484375 0 0  0.0224609375 0 0  0.0234375 0 0  0.0244140625 0 0  0.025390625 0 0  0.0263671875 0 0  0.02734375 0 0  0.0283203125 0 0  0.029296875 0 0  0.0302734375 0 0  0.03125 0 0  0.0322265625 0 0  0.033203125 0 0  0.0341796875 0 0  0.03515625 0 0  0.0361328125 0 0  0.037109375 0 0  0.0380859375 0 0  0.0390625 0 0  0.0400390625 0 0  0.041015625 0 0  0.0419921875 0 0  0.04296875 0 0  0.0439453125 0 0  0.044921875 0 0  0.0458984375 0 0  0.046875 0 0  0.0478515625 0 0  0.048828125 0 0  0.0498046875 0 0  0.05078125 0 0  0.0517578125 0 0  0.052734375 0 0  0.0537109375 0 0  0.0546875 0 0  0.0556640625 0 0  0.056640625 0 0  0.0576171875 0 0  0.05859375 0 0  0.0595703125 0 0  0.060546875 0 0  0.0615234375 0 0  0.0625 0 0  0.0634765625 0 0  0.064453125 0 0  0.0654296875 0 0  0.06640625 0 0  0.0673828125 0 0  0.068359375 0 0  0.0693359375 0 0  0.0703125 0 0  0.0712890625 0 0  0.072265625 0 0  0.0732421875 0 0  0.07421875 0 0  0.0751953125 0 0  0.076171875 0 0  0.0771484375 0 0  0.078125 0 0  0.0791015625 0 0  0.080078125 0 0  0.0810546875 0 0  0.08203125 0 0  0.0830078125 0 0  0.083984375 0 0  0.0849609375 0 0  0.0859375 0 0  0.0869140625 0 0  0.087890625 0 0  0.0888671875 0 0  0.08984375 0 0  0.0908203125 0 0  0.091796875 0 0  0.0927734375 0 0  0.09375 0 0  0.0947265625 0 0  0.095703125 0 0  0.0966796875 0 0  0.09765625 0 0  0.0986328125 0 0  0.099609375 0 0  0.1005859375 0 0  0.1015625 0 0  0.1025390625 0 0  0.103515625 0 0  0.1044921875 0 0  0.10546875 0 0  0.1064453125 0 0  0.107421875 0 0  0.1083984375 0 0  0.109375 0 0  0.1103515625 0 0  0.111328125 0 0  0.1123046875 0 0  0.11328125 0 0  0.1142578125 0 0  0.115234375 0 0  0.1162109375 0 0  0.1171875 0 0  0.1181640625 0 0  0.119140625 0 0  0.1201171875 0 0  0.12109375 0 0  0.1220703125 0 0  0.123046875 0 0  0.1240234375 0 0  0.125 0 0  0.1259765625 0 0  0.126953125 0 0  0.1279296875 0 0  0.12890625 0 0  0.1298828125 0 0  0.130859375 0 0  0.1318359375 0 0  0.1328125 0 0  0.1337890625 0 0  0.134765625 0 0  0.1357421875 0 0  0.13671875 0 0  0.1376953125 0 0  0.138671875 0 0  0.1396484375 0 0  0.140625 0 0  0.1416015625 0 0  0.142578125 0 0  0.1435546875 0 0  0.14453125 0 0  0.1455078125 0 0  0.146484375 0 0  0.1474609375 0 0  0.1484375 0 0  0.1494140625 0 0  0.150390625 0 0  0.1513671875 0 0  0.15234375 0 0  0.1533203125 0 0  0.154296875 0 0  0.1552734375 0 0  0.15625 0 0  0.1572265625 0 0  0.158203125 0 0  0.1591796875 0 0  0.16015625 0 0  0.1611328125 0 0  0.162109375 0 0  0.1630859375 0 0  0.1640625 0 0  0.1650390625 0 0  0.166015625 0 0  0.1669921875 0 0  0.16796875 0 0  0.1689453125 0 0  0.169921875 0 0  0.1708984375 0 0  0.171875 0 0  0.1728515625 0 0  0.173828125 0 0  0.1748046875 0 0  0.17578125 0 0  0.1767578125 0 0  0.177734375 0 0  0.1787109375 0 0  0.1796875 0 0  0.1806640625 0 0  0.181640625 0 0  0.1826171875 0 0  0.18359375 0 0  0.1845703125 0 0  0.185546875 0 0  0.1865234375 0 0  0.1875 0 0  0.1884765625 0 0  0.189453125 0 0  0.1904296875 0 0  0.19140625 0 0  0.1923828125 0 0  0.193359375 0 0  0.1943359375 0 0  0.1953125 0 0  0.1962890625 0 0  0.197265625 0 0  0.1982421875 0 0  0.19921875 0 0  0.2001953125 0 0  0.201171875 0 0  0.2021484375 0 0  0.203125 0 0  0.2041015625 0 0  0.205078125 0 0  0.2060546875 0 0  0.20703125 0 0  0.2080078125 0 0  0.208984375 0 0  0.2099609375 0 0  0.2109375 0 0  0.2119140625 0 0  0.212890625 0 0  0.2138671875 0 0  0.21484375 0 0  0.2158203125 0 0  0.216796875 0 0  0.2177734375 0 0  0.21875 0 0  0.2197265625 0 0  0.220703125 0 0  0.2216796875 0 0  0.22265625 0 0  0.2236328125 0 0  0.224609375 0 0  0.2255859375 0 0  0.2265625 0 0  0.2275390625 0 0  0.228515625 0 0  0.2294921875 0 0  0.23046875 0 0  0.2314453125 0 0  0.232421875 0 0  0.2333984375 0 0  0.234375 0 0  0.2353515625 0 0  0.236328125 0 0  0.2373046875 0 0  0.23828125 0 0  0.2392578125 0 0  0.240234375 0 0  0.2412109375 0 0  0.2421875 0 0  0.2431640625 0 0  0.244140625 0 0  0.2451171875 0 0  0.24609375 0 0  0.2470703125 0 0  0.248046875 0 0  0.2490234375 0 0  0.25 0 0  0.2509765625 0 0  0.251953125 0 0  0.2529296875 0 0  0.25390625 0 0  0.2548828125 0 0  0.255859375 0 0  0.2568359375 0 0  0.2578125 0 0  0.2587890625 0 0  0.259765625 0 0  0.2607421875 0 0  0.26171875 0 0  0.2626953125 0 0  0.263671875 0 0  0.2646484375 0 0  0.265625 0 0  0.2666015625 0 0  0.267578125 0 0  0.2685546875 0 0  0.26953125 0 0  0.2705078125 0 0  0.271484375 0 0  0.2724609375 0 0  0.2734375 0 0  0.2744140625 0 0  0.275390625 0 0  0.2763671875 0 0  0.27734375 0 0  0.2783203125 0 0  0.279296875 0 0  0.2802734375 0 0  0.28125 0 0  0.2822265625 0 0  0.283203125 0 0  0.2841796875 0 0  0.28515625 0 0  0.2861328125 0 0  0.287109375 0 0  0.2880859375 0 0  0.2890625 0 0  0.2900390625 0 0  0.291015625 0 0  0.2919921875 0 0  0.29296875 0 0  0.2939453125 0 0  0.294921875 0 0  0.2958984375 0 0  0.296875 0 0  0.2978515625 0 0  0.298828125 0 0  0.2998046875 0 0  0.30078125 0 0  0.3017578125 0 0  0.302734375 0 0  0.3037109375 0 0  0.3046875 0 0  0.3056640625 0 0  0.306640625 0 0  0.3076171875 0 0  0.30859375 0 0  0.3095703125 0 0  0.310546875 0 0  0.3115234375 0 0  0.3125 0 0  0.3134765625 0 0  0.314453125 0 0  0.3154296875 0 0  0.31640625 0 0  0.3173828125 0 0  0.318359375 0 0  0.3193359375 0 0  0.3203125 0 0  0.3212890625 0 0  0.322265625 0 0  0.3232421875 0 0  0.32421875 0 0  0.3251953125 0 0  0.326171875 0 0  0.3271484375 0 0  0.328125 0 0  0.3291015625 0 0  0.330078125 0 0  0.3310546875 0 0  0.33203125 0 0  0.3330078125 0 0  0.333984375 0 0  0.3349609375 0 0  0.3359375 0 0  0.3369140625 0 0  0.337890625 0 0  0.3388671875 0 0  0.33984375 0 0  0.3408203125 0 0  0.341796875 0 0  0.3427734375 0 0  0.34375 0 0  0.3447265625 0 0  0.345703125 0 0  0.3466796875 0 0  0.34765625 0 0  0.3486328125 0 0  0.349609375 0 0  0.3505859375 0 0  0.3515625 0 0  0.3525390625 0 0  0.353515625 0 0  0.3544921875 0 0  0.35546875 0 0  0.3564453125 0 0  0.357421875 0 0  0.3583984375 0 0  0.359375 0 0  0.3603515625 0 0  0.361328125 0 0  0.3623046875 0 0  0.36328125 0 0  0.3642578125 0 0  0.365234375 0 0  0.3662109375 0 0  0.3671875 0 0  0.3681640625 0 0  0.369140625 0 0  0.3701171875 0 0  0.37109375 0 0  0.3720703125 0 0  0.373046875 0 0  0.3740234375 0 0  0.375 0 0  0.3759765625 0 0  0.376953125 0 0  0.3779296875 0 0  0.37890625 0 0  0.3798828125 0 0  0.380859375 0 0  0.3818359375 0 0  0.3828125 0 0  0.3837890625 0 0  0.384765625 0 0  0.3857421875 0 0  0.38671875 0 0  0.3876953125 0 0  0.388671875 0 0  0.3896484375 0 0  0.390625 0 0  0.3916015625 0 0  0.392578125 0 0  0.3935546875 0 0  0.39453125 0 0  0.3955078125 0 0  0.396484375 0 0  0.3974609375 0 0  0.3984375 0 0  0.3994140625 0 0  0.400390625 0 0  0.4013671875 0 0  0.40234375 0 0  0.4033203125 0 0  0.404296875 0 0  0.4052734375 0 0  0.40625 0 0  0.4072265625 0 0  0.408203125 0 0  0.4091796875 0 0  0.41015625 0 0  0.4111328125 0 0  0.412109375 0 0  0.4130859375 0 0  0.4140625 0 0  0.4150390625 0 0  0.416015625 0 0  0.4169921875 0 0  0.41796875 0 0  0.4189453125 0 0  0.419921875 0 0  0.4208984375 0 0  0.421875 0 0  0.4228515625 0 0  0.423828125 0 0  0.4248046875 0 0  0.42578125 0 0  0.4267578125 0 0  0.427734375 0 0  0.4287109375 0 0  0.4296875 0 0  0.4306640625 0 0  0.431640625 0 0  0.4326171875 0 0  0.43359375 0 0  0.4345703125 0 0  0.435546875 0 0  0.4365234375 0 0  0.4375 0 0  0.4384765625 0 0  0.439453125 0 0  0.4404296875 0 0  0.44140625 0 0  0.4423828125 0 0  0.443359375 0 0  0.4443359375 0 0  0.4453125 0 0  0.4462890625 0 0  0.447265625 0 0  0.4482421875 0 0  0.44921875 0 0  0.4501953125 0 0  0.451171875 0 0  0.4521484375 0 0  0.453125 0 0  0.4541015625 0 0  0.455078125 0 0  0.4560546875 0 0  0.45703125 0 0  0.4580078125 0 0  0.458984375 0 0  0.4599609375 0 0  0.4609375 0 0  0.4619140625 0 0  0.462890625 0 0  0.4638671875 0 0  0.46484375 0 0  0.4658203125 0 0  0.466796875 0 0  0.4677734375 0 0  0.46875 0 0  0.4697265625 0 0  0.470703125 0 0  0.4716796875 0 0  0.47265625 0 0  0.4736328125 0 0  0.474609375 0 0  0.4755859375 0 0  0.4765625 0 0  0.4775390625 0 0  0.478515625 0 0  0.4794921875 0 0  0.48046875 0 0  0.4814453125 0 0  0.482421875 0 0  0.4833984375 0 0  0.484375 0 0  0.4853515625 0 0  0.486328125 0 0  0.4873046875 0 0  0.48828125 0 0  0.4892578125 0 0  0.490234375 0 0  0.4912109375 0 0  0.4921875 0 0  0.4931640625 0 0  0.494140625 0 0  0.4951171875 0 0  0.49609375 0 0  0.4970703125 0 0  0.498046875 0 0  0.4990234375 0 0  0.5 0 0  0.5009765625 0 0  0.501953125 0 0  0.5029296875 0 0  0.50390625 0 0  0.5048828125 0 0  0.505859375 0 0  0.5068359375 0 0  0.5078125 0 0  0.5087890625 0 0  0.509765625 0 0  0.5107421875 0 0  0.51171875 0 0  0.5126953125 0 0  0.513671875 0 0  0.5146484375 0 0  0.515625 0 0  0.5166015625 0 0  0.517578125 0 0  0.5185546875 0 0  0.51953125 0 0  0.5205078125 0 0  0.521484375 0 0  0.5224609375 0 0  0.5234375 0 0  0.5244140625 0 0  0.525390625 0 0  0.5263671875 0 0  0.52734375 0 0  0.5283203125 0 0  0.529296875 0 0  0.5302734375 0 0  0.53125 0 0  0.5322265625 0 0  0.533203125 0 0  0.5341796875 0 0  0.53515625 0 0  0.5361328125 0 0  0.537109375 0 0  0.5380859375 0 0  0.5390625 0 0  0.5400390625 0 0  0.541015625 0 0  0.5419921875 0 0  0.54296875 0 0  0.5439453125 0 0  0.544921875 0 0  0.5458984375 0 0  0.546875 0 0  0.5478515625 0 0  0.548828125 0 0  0.5498046875 0 0  0.55078125 0 0  0.5517578125 0 0  0.552734375 0 0  0.5537109375 0 0  0.5546875 0 0  0.5556640625 0 0  0.556640625 0 0  0.5576171875 0 0  0.55859375 0 0  0.5595703125 0 0  0.560546875 0 0  0.5615234
[...]
<PointData  Scalars="f_37"> 
<DataArray  type="Float64"  Name="f_37"  format="ascii">7.7880078307140488e-01  7.7956095874625941e-01  7.8032038807265891e-01  7.8107906742512379e-01  7.8183699317894317e-01  7.8259416171020002e-01  7.8335056939579872e-01  7.8410621261349411e-01  7.8486108774192009e-01  7.8561519116061773e-01  7.8636851925006490e-01  7.8712106839170282e-01  7.8787283496796556e-01  7.8862381536230908e-01  7.8937400595923934e-01  7.9012340314434071e-01  7.9087200330430540e-01  7.9161980282696121e-01  7.9236679810130006e-01  7.9311298551750786e-01  7.9385836146699240e-01  7.9460292234241137e-01  7.9534666453770153e-01  7.9608958444810851e-01  7.9683167847021452e-01  7.9757294300196724e-01  7.9831337444270878e-01  7.9905296919320346e-01  7.9979172365566831e-01  8.0052963423380097e-01  8.0126669733280875e-01  8.0200290935943652e-01  8.0273826672199711e-01  8.0347276583039939e-01  8.0420640309617597e-01  8.0493917493251377e-01  8.0567107775428271e-01  8.0640210797806400e-01  8.0713226202218014e-01  8.0786153630672197e-01  8.0858992725357925e-01  8.0931743128646805e-01  8.1004404483096160e-01  8.1076976431451742e-01  8.1149458616650760e-01  8.1221850681824803e-01  8.1294152270302533e-01  8.1366363025612765e-01  8.1438482591487349e-01  8.1510510611864018e-01  8.1582446730889246e-01  8.1654290592921330e-01  8.1726041842533059e-01  8.1797700124514749e-01  8.1869265083877141e-01  8.1940736365854272e-01  8.2012113615906435e-01  8.2083396479723025e-01  8.2154584603225445e-01  8.2225677632570027e-01  8.2296675214150938e-01  8.2367576994602998e-01  8.2438382620804762e-01  8.2509091739881291e-01  8.2579703999207132e-01  8.2650219046409157e-01  8.2720636529369551e-01  8.2790956096228596e-01  8.2861177395387664e-01  8.2931300075512049e-01  8.3001323785534065e-01  8.3071248174655721e-01  8.3141072892351753e-01  8.3210797588372420e-01  8.3280421912746572e-01  8.3349945515784474e-01  8.3419368048080689e-01  8.3488689160516882e-01  8.3557908504264999e-01  8.3627025730789961e-01  8.3696040491852552e-01  8.3764952439512441e-01  8.3833761226131043e-01  8.3902466504374396e-01  8.3971067927216037e-01  8.4039565147939987e-01  8.4107957820143631e-01  8.4176245597740496e-01  8.4244428134963345e-01  8.4312505086366885e-01  8.4380476106830760e-01  8.4448340851562531e-01  8.4516098976100429e-01  8.4583750136316294e-01  8.4651293988418463e-01  8.4718730188954738e-01  8.4786058394815134e-01  8.4853278263234921e-01  8.4920389451797440e-01  8.4987391618436992e-01  8.5054284421441684e-01  8.5121067519456439e-01  8.5187740571485815e-01  8.5254303236896856e-01  8.5320755175422025e-01  8.5387096047162048e-01  8.5453325512588874e-01  8.5519443232548398e-01  8.5585448868263481e-01  8.5651342081336790e-01  8.5717122533753720e-01  8.5782789887885169e-01  8.5848343806490424e-01  8.5913783952720080e-01  8.5979109990118952e-01  8.6044321582628791e-01  8.6109418394591331e-01  8.6174400090751047e-01  8.6239266336258003e-01  8.6304016796670857e-01  8.6368651137959507e-01  8.6433169026508083e-01  8.6497570129117807e-01  8.6561854113009840e-01  8.6626020645828139e-01  8.6690069395642233e-01  8.6754000030950118e-01  8.6817812220681090e-01  8.6881505634198641e-01  8.6945079941303294e-01  8.7008534812235350e-01  8.7071869917677847e-01  8.7135084928759365e-01  8.7198179517056773e-01  8.7261153354598131e-01  8.7324006113865571e-01  8.7386737467798081e-01  8.7449347089794249e-01  8.7511834653715226e-01  8.7574199833887489e-01  8.7636442305105666e-01  8.7698561742635206e-01  8.7760557822215413e-01  8.7822430220062164e-01  8.7884178612870689e-01  8.7945802677818452e-01  8.8007302092567807e-01  8.8068676535268919e-01  8.8129925684562616e-01  8.8191049219583073e-01  8.8252046819960650e-01  8.8312918165824617e-01  8.8373662937806030e-01  8.8434280817040478e-01  8.8494771485170864e-01  8.8555134624350151e-01  8.8615369917244224e-01  8.8675477047034590e-01  8.8735455697421128e-01  8.8795305552624870e-01  8.8855026297390838e-01  8.8914617616990754e-01  8.8974079197225708e-01  8.9033410724429063e-01  8.9092611885469120e-01  8.9151682367751850e-01  8.9210621859223738e-01  8.9269430048374421e-01  8.9328106624239390e-01  8.9386651276402840e-01  8.9445063695000371e-01  8.9503343570721672e-01  8.9561490594813253e-01  8.9619504459081156e-01  8.9677384855893705e-01  8.9735131478184171e-01  8.9792744019453563e-01  8.9850222173773231e-01  8.9907565635787667e-01  8.9964774100717126e-01  9.0021847264360344e-01  9.0078784823097235e-01  9.0135586473891516e-01  9.0192251914293575e-01  9.0248780842442877e-01  9.0305172957070834e-01  9.0361427957503437e-01  9.0417545543663902e-01  9.0473525416075273e-01  9.0529367275863248e-01  9.0585070824758618e-01  9.0640635765100086e-01  9.0696061799836880e-01  9.0751348632531292e-01  9.0806495967361445e-01  9.0861503509123809e-01  9.0916370963235982e-01  9.0971098035739195e-01  9.1025684433300946e-01  9.1080129863217574e-01  9.1134434033417078e-01  9.1188596652461473e-01  9.1242617429549500e-01  9.1296496074519173e-01  9.1350232297850487e-01  9.1403825810667860e-01  9.1457276324742898e-01  9.1510583552496794e-01  9.1563747207002977e-01  9.1616767001989685e-01  9.1669642651842542e-01  9.1722373871607099e-01  9.1774960376991344e-01  9.1827401884368398e-01  9.1879698110778896e-01  9.1931848773933633e-01  9.1983853592216036e-01  9.2035712284684745e-01  9.2087424571076071e-01  9.2138990171806623e-01  9.2190408807975721e-01  9.2241680201367982e-01  9.2292804074455714e-01  9.2343780150401655e-01  9.2394608153061142e-01  9.2445287806984822e-01  9.2495818837421140e-01  9.2546200970318671e-01  9.2596433932328792e-01  9.2646517450807964e-01  9.2696451253820245e-01  9.2746235070139849e-01  9.2795868629253453e-01  9.2845351661362774e-01  9.2894683897386954e-01  9.2943865068965004e-01  9.2992894908458223e-01  9.3041773148952611e-01  9.3090499524261339e-01  9.3139073768927050e-01  9.3187495618224414e-01  9.3235764808162369e-01  9.3283881075486696e-01  9.3331844157682309e-01  9.3379653792975637e-01  9.3427309720337059e-01  9.3474811679483238e-01  9.3522159410879413e-01  9.3569352655741800e-01  9.3616391156040102e-01  9.3663274654499684e-01  9.3710002894603972e-01  9.3756575620596894e-01  9.3802992577484945e-01  9.3849253511039765e-01  9.3895358167800280e-01  9.3941306295075155e-01  9.3987097640945105e-01  9.4032731954265014e-01  9.4078208984666423e-01  9.4123528482559826e-01  9.4168690199136706e-01  9.4213693886372063e-01  9.4258539297026633e-01  9.4303226184648969e-01  9.4347754303577991e-01  9.4392123408945039e-01  9.4436333256676175e-01  9.4480383603494322e-01  9.4524274206921632e-01  9.4568004825281693e-01  9.4611575217701660e-01  9.4654985144114578e-01  9.4698234365261347e-01  9.4741322642693226e-01  9.4784249738773863e-01  9.4827015416681515e-01  9.4869619440411201e-01  9.4912061574776929e-01  9.4954341585413760e-01  9.4996459238779996e-01  9.5038414302159369e-01  9.5080206543663182e-01  9.5121835732232396e-01  9.5163301637639863e-01  9.5204604030492257e-01  9.5245742682232382e-01  9.5286717365141105e-01  9.5327527852339600e-01  9.5368173917791466e-01  9.5408655336304682e-01  9.5448971883533695e-01  9.5489123335981607e-01  9.5529109471002127e-01  9.5568930066801649e-01  9.5608584902441374e-01  9.5648073757839269e-01  9.5687396413772097e-01  9.5726552651877617e-01  9.5765542254656355e-01  9.5804365005473746e-01  9.5843020688562164e-01  9.5881509089022821e-01  9.5919829992827854e-01  9.5957983186822204e-01  9.5995968458725756e-01  9.6033785597135124e-01  9.6071434391525734e-01  9.6108914632253761e-01  9.6146226110558064e-01  9.6183368618562015e-01  9.6220341949275601e-01  9.6257145896597274e-01  9.6293780255315808e-01  9.6330244821112332e-01  9.6366539390562123e-01  9.6402663761136531e-01  9.6438617731204845e-01  9.6474401100036167e-01  9.6510013667801331e-01  9.6545455235574729e-01  9.6580725605336082e-01  9.6615824579972398e-01  9.6650751963279768e-01  9.6685507559965322e-01  9.6720091175648804e-01  9.6754502616864524e-01  9.6788741691063140e-01  9.6822808206613387e-01  9.6856701972804016e-01  9.6890422799845488e-01  9.6923970498871737e-01  9.6957344881941943e-01  9.6990545762042213e-01  9.7023572953087489e-01  9.7056426269923124e-01  9.7089105528326713e-01  9.7121610545009862e-01  9.7153941137619682e-01  9.7186097124740767e-01  9.7218078325896640e-01  9.7249884561551647e-01  9.7281515653112516e-01  9.7312971422930028e-01  9.7344251694300787e-01  9.7375356291468762e-01  9.7406285039626961e-01  9.7437037764919099e-01  9.7467614294441152e-01  9.7498014456243121e-01  9.7528238079330443e-01  9.7558284993665834e-01  9.7588155030170720e-01  9.7617848020726750e-01  9.7647363798177589e-01  9.7676702196330245e-01  9.7705863049956865e-01  9.7734846194796199e-01  9.7763651467555035e-01  9.7792278705909919e-01  9.7820727748508507e-01  9.7848998434971224e-01  9.7877090605892647e-01  9.7905004102843074e-01  9.7932738768369920e-01  9.7960294445999352e-01  9.7987670980237662e-01  9.8014868216572748e-01  9.8041886001475531e-01  9.8068724182401490e-01  9.8095382607791992e-01  9.8121861127075793e-01  9.8148159590670470e-01  9.8174277849983793e-01  9.8200215757415066e-01  9.8225973166356606e-01  9.8251549931195081e-01  9.8276945907312929e-01  9.8302160951089657e-01  9.8327194919903194e-01  9.8352047672131304e-01  9.8376719067152851e-01  9.8401208965349096e-01  9.8425517228105186e-01  9.8449643717811264e-01  9.8473588297863890e-01  9.8497350832667241e-01  9.8520931187634542e-01  9.8544329229189176e-01  9.8567544824766007e-01  9.8590577842812610e-01  9.8613428152790572e-01  9.8636095625176645e-01  9.8658580131464035e-01  9.8680881544163579e-01  9.8702999736804986e-01  9.8724934583938029e-01  9.8746685961133607e-01  9.8768253744985102e-01  9.8789637813109410e-01  9.8810838044148286e-01  9.8831854317769230e-01  9.8852686514666810e-01  9.8873334516563693e-01  9.8893798206211869e-01  9.8914077467393691e-01  9.8934172184922942e-01  9.8954082244645991e-01  9.8973807533442892e-01  9.8993347939228393e-01  9.9012703350953013e-01  9.9031873658604030e-01  9.9050858753206750e-01  9.9069658526825299e-01  9.9088272872563643e-01  9.9106701684566800e-01  9.9124944858021680e-01  9.9143002289158200e-01  9.9160873875250122e-01  9.9178559514616116e-01  9.9196059106620693e-01  9.9213372551675172e-01  9.9230499751238643e-01  9.9247440607818915e-01  9.9264195024973445e-01  9.9280762907310127e-01  9.9297144160488326e-01  9.9313338691219732e-01  9.9329346407269348e-01  9.9345167217456143e-01  9.9360801031654111e-01  9.9376247760793079e-01  9.9391507316859440e-01  9.9406579612897117e-01  9.9421464563008377e-01  9.9436162082354629e-01  9.9450672087157299e-01  9.9464994494698422e-01  9.9479129223321661e-01  9.9493076192432928e-01  9.9506835322501130e-01  9.9520406535059136e-01  9.9533789752704338e-01  9.9546984899099333e-01  9.9559991898972877e-01  9.9572810678120416e-01  9.9585441163404820e-01  9.9597883282757194e-01  9.9610136965177343e-01  9.9622202140734739e-01  9.9634078740568965e-01  9.9645766696890392e-01  9.9657265942980866e-01  9.9668576413194310e-01  9.9679698042957454e-01  9.9690630768770350e-01  9.9701374528206987e-01  9.9711929259915966e-01  9.9722294903620945e-01  9.9732471400121292e-01  9.9742458691292635e-01  9.9752256720087396e-01  9.9761865430535446e-01  9.9771284767744506e-01  9.9780514677900711e-01  9.9789555108269123e-01  9.9798406007194240e-01  9.9807067324100485e-01  9.9815539009492704e-01  9.9823821014956560e-01  9.9831913293159147e-01  9.9839815797849230e-01  9.9847528483857895e-01  9.9855051307098841e-01  9.9862384224568923e-01  9.9869527194348395e-01  9.9876480175601401e-01  9.9883243128576493e-01  9.9889816014606692e-01  9.9896198796110180e-01  9.9902391436590499e-01  9.9908393900636949e-01  9.9914206153924845e-01  9.9919828163215851e-01  9.9925259896358454e-01  9.9930501322288046e-01  9.9935552411027428e-01  9.9940413133686978e-01  9.9945083462464979e-01  9.9949563370647754e-01  9.9953852832610124e-01  9.9957951823815483e-01  9.9961860320816187e-01  9.9965578301253566e-01  9.9969105743858322e-01  9.9972442628450697e-01  9.9975588935940607e-01  9.9978544648327916e-01  9.9981309748702485e-01  9.9983884221244401e-01  9.9986268051224170e-01  9.9988461225002701e-01  9.9990463730031620e-01  9.9992275554853316e-01  9.9993896689101092e-01  9.9995327123499134e-01  9.9996566849862778e-01  9.9997615861098432e-01  9.9998474151203742e-01  9.9999141715267614e-01  9.9999618549470248e-01  9.9999904651083149e-01  1.0000000001846927e+00  9.9999904651082949e-01  9.9999618549469826e-01  9.9999141715266981e-01  9.9998474151202876e-01  9.9997615861097322e-01  9.9996566849861412e-01  9.9995327123497546e-01  9.9993896689099293e-01  9.9992275554851329e-01  9.9990463730029444e-01  9.9988461225000380e-01  9.9986268051221716e-01  9.9983884221241837e-01  9.9981309748699754e-01  9.9978544648325074e-01  9.9975588935937609e-01  9.9972442628447489e-01  9.9969105743854925e-01  9.9965578301250002e-01  9.9961860320812534e-01  9.9957951823811797e-01  9.9953852832606338e-01  9.9949563370643890e-01  9.9945083462460982e-01  9.9940413133682893e-01  9.9935552411023199e-01  9.9930501322283660e-01  9.9925259896353913e-01  9.9919828163211211e-01  9.9914206153920060e-01  9.9908393900632075e-01  9.9902391436585480e-01  9.9896198796104951e-01  9.9889816014601263e-01  9.9883243128570820e-01  9.9876480175595483e-01  9.9869527194342211e-01  9.9862384224562539e-01  9.9855051307092324e-01  9.9847528483851211e-01  9.9839815797842435e-01  9.9831913293152275e-01  9.9823821014949643e-01  9.9815539009485754e-01  9.9807067324093501e-01  9.9798406007187213e-01  9.9789555108262062e-01  9.9780514677893628e-01  9.9771284767737389e-01  9.9761865430528351e-01  9.9752256720080346e-01  9.9742458691285596e-01  9.9732471400114342e-01  9.9722294903614117e-01  9.9711929259909249e-01  9.9701374528200359e-01  9.9690630768763810e-01  9.9679698042951081e-01  9.9668576413188115e-01  9.9657265942974826e-01  9.9645766696884563e-01  9.9634078740563392e-01  9.9622202140729388e-01  9.9610136965172169e-01  9.9597883282752153e-01  9.9585441163399979e-01  9.9572810678115731e-01  9.9559991898968414e-01  9.9546984899095081e-01  9.9533789752700230e-01  9.9520406535055261e-01  9.9506835322497444e-01  9.9493076192429386e-01  9.9479129223318330e-01  9.9464994494695269e-01  9.9450672087154268e-01  9.9436162082351720e-01  9.9421464563005546e-01  9.9406579612894375e-01  9.9391507316856842e-01  9.9376247760790648e-01  9.9360801031651891e-01  9.9345167217454111e-01  9.9329346407267449e-01  9.9313338691217967e-01  9.9297144160486650e-01  9.9280762907308562e-01  9.9264195024971980e-01  9.9247440607817516e-01  9.9230499751237256e-01  9.9213372551673795e-01  9.9196059106619405e-01  9.9178559514614928e-01  9.9160873875249034e-01  9.9143002289157167e-01  9.9124944858020692e-01  9.9106701684565834e-01  9.9088272872562722e-01  9.9069658526824400e-01  9.9050858753205917e-01  9.9031873658603176e-01  9.9012703350952092e-01  9.8993347939227450e-01  9.8973807533441871e-01  9.8954082244644870e-01  9.8934172184921754e-01  9.8914077467392414e-01  9.8893798206210548e-01  9.8873334516562306e-01  9.8852686514665333e-01  9.8831854317767664e-01  9.8810838044146643e-01  9.8789637813107689e-01  9.8768253744983248e-01  9.8746685961131597e-01  9.8724934583935853e-01  9.8702999736802632e-01  9.8680881544160992e-01  9.8658580131461260e-01  9.8636095625173681e-01  9.8613428152787419e-01  9.8590577842809279e-01  9.8567544824762499e-01  9.8544329229185490e-01  9.8520931187630667e-01  9.8497350832663144e-01  9.8473588297859538e-01  9.8449643717806679e-01  9.8425517228100379e-01  9.8401208965344078e-01  9.8376719067147633e-01  9.8352047672125875e-01  9.8327194919897543e-01  9.8302160951083739e-01  9.8276945907306745e-01  9.8251549931188631e-01  9.8225973166349811e-01  9.8200215757407927e-01  9.8174277849976355e-01  9.8148159590662687e-01  9.8121861127067633e-01  9.8095382607783488e-01  9.8068724182392697e-01  9.8041886001466472e-01  9.8014868216563422e-01  9.7987670980228103e-01  9.7960294445989571e-01  9.7932738768359928e-01  9.7905004102832871e-01  9.7877090605882233e-01  9.7848998434960499e-01  9.7820727748497449e-01  9.7792278705898494e-01  9.7763651467543211e-01  9.7734846194784031e-01  9.7705863049944353e-01  9.7676702196317422e-01  9.7647363798164488e-01  9.7617848020713449e-01  9.7588155030157187e-01  9.7558284993652034e-01  9.7528238079316310e-01  9.7498014456228610e-01  9.7467614294426363e-01  9.7437037764904000e-01  9.7406285039611584e-01  9.7375356291453097e-01  9.7344251694284856e-01  9.7312971422913841e-01  9.7281515653096107e-01  9.7249884561535060e-01  9.7218078325879920e-01  9.7186097124723947e-01  9.7153941137602795e-01  9.7121610544992876e-01  9.7089105528309672e-01  9.7056426269905993e-01  9.7023572953070258e-01  9.6990545762024916e-01  9.6957344881924612e-01  9.6923970498854384e-01  9.6890422799828091e-01  9.6856701972786541e-01  9.6822808206595823e-01  9.6788741691045510e-01  9.6754502616846860e-01  9.6720091175631029e-01  9.6685507559947448e-01  9.6650751963261750e-01  9.6615824579954168e-01  9.6580725605317719e-01  9.6545455235556299e-01  9.6510013667782846e-01  9.6474401100017593e-01  9.6438617731186171e-01  9.6402663761117713e-01  9.6366539390543138e-01  9.6330244821093147e-01  9.6293780255296435e-01  9.6257145896577689e-01  9.6220341949255861e-01  9.6183368618542087e-01  9.6146226110537969e-01  9.6108914632233589e-01  9.6071434391505472e-01  9.6033785597114785e-01  9.5995968458705339e-01  9.5957983186801754e-01  9.5919829992807348e-01  9.5881509089002315e-01  9.5843020688541658e-01  9.5804365005453229e-01  9.5765542254635805e-01  9.5726552651857044e-01  9.5687396413751502e-01  9.5648073757818608e-01  9.5608584902420690e-01  9.5568930066780955e-01  9.5529109470981466e-01  9.5489123335961057e-01  9.5448971883513267e-01  9.5408655336284343e-01  9.5368173917771237e-01  9.5327527852319416e-01  9.5286717365120932e-01  9.5245742682212264e-01  9.5204604030472217e-01  9.5163301637619857e-01  9.5121835732212401e-01  9.5080206543643109e-01  9.5038414302139262e-01  9.4996459238759856e-01  9.4954341585393642e-01  9.4912061574756834e-01  9.4869619440391140e-01  9.4827015416661475e-01  9.4784249738753901e-01  9.4741322642673320e-01  9.4698234365241496e-01  9.4654985144094783e-01  9.4611575217681965e-01  9.4568004825262031e-01  9.4524274206901970e-01  9.4480383603474638e-01  9.4436333256656479e-01  9.4392123408925366e-01  9.4347754303558307e-01  9.4303226184629285e-01  9.4258539297006982e-01  9.4213693886352468e-01  9.4168690199117122e-01  9.4123528482540275e-01  9.4078208984646938e-01  9.4032731954245519e-01  9.3987097640925665e-01  9.3941306295055815e-01  9.3895358167780985e-01  9.3849253511020569e-01  9.3802992577465916e-01  9.3756575620577987e-01  9.3710002894585198e-01  9.3663274654480955e-01  9.3616391156021417e-01  9.3569352655723170e-01  9.3522159410860883e-01  9.3474811679464853e-01  9.3427309720318807e-01  9.3379653792957440e-01  9.3331844157664179e-01  9.3283881075468589e-01  9.3235764808144250e-01  9.3187495618206317e-01  9.3139073768908998e-01  9.3090499524243286e-01  9.3041773148934559e-01  9.2992894908440094e-01  9.2943865068946774e-01  9.2894683897368580e-01  9.2845351661344278e-01  9.2795868629234834e-01  9.2746235070121130e-01  9.2696451253801493e-01  9.2646517450789134e-01  9.2596433932309929e-01  9.2546200970299741e-01  9.2495818837402111e-01  9.2445287806965748e-01  9.2394608153041957e-01  9.2343780150382404e-01  9.2292804074436430e-01  9.2241680201348597e-01  9.2190408807956337e-01  9.2138990171787205e-01  9.2087424571056620e-01  9.2035712284665239e-01  9.1983853592196507e-01  9.1931848773914027e-01  9.1879698110759223e-01  9.1827401884348658e-01  9.1774960376971570e-01  9.1722373871587271e-01  9.1669642651822680e-01  9.1616767001969801e-01  9.1563747206983026e-01  9.1510583552476787e-01  9.1457276324722847e-01  9.1403825810647787e-01  9.1350232297830347e-01  9.1296496074499012e-01  9.1242617429529316e-01  9.1188596652441278e-01  9.1134434033396838e-01  9.1080129863197268e-01  9.1025684433280529e-01  9.0971098035718756e-01  9.0916370963215487e-01  9.0861503509103214e