<?xml version="1.0"?>
<VTKFile type="UnstructuredGrid"  version="0.1"  >
<UnstructuredGrid>
<Piece  NumberOfPoints="13" NumberOfCells="16">
<Points>
<DataArray  type="Float64"  NumberOfComponents="3"  format="ascii">0 0 0  0.5 0 0  1 0 0  0 0.5 0  0.5 0.5 0  1 0.5 0  0 1 0  0.5 1 0  1 1 0  0.25 0.25 0  0.75 0.25 0  0.25 0.75 0  0.75 0.75 0  </DataArray>
</Points>
<Cells>
<DataArray  type="UInt32"  Name="connectivity"  format="ascii">0 1 9  0 3 9  1 4 9  3 4 9  1 2 10  1 4 10  2 5 10  4 5 10  3 4 11  3 6 11  4 7 11  6 7 11  4 5 12  4 7 12  5 8 12  7 8 12  </DataArray>
<DataArray  type="UInt32"  Name="offsets"  format="ascii">3 6 9 12 15 18 21 24 27 30 33 36 39 42 45 48 </DataArray>
<DataArray  type="UInt8"  Name="types"  format="ascii">5 5 5 5 5 5 5 5 5 5 5 5 5 5 5 5 </DataArray>
</Cells>
<PointData  Scalars="f_55"> 
<DataArray  type="Float64"  Name="f_55"  format="ascii">7.7880078307140488e-01  1.0006208631624660e+00  7.7880078307140488e-01  7.7880078307140488e-01  1.0006208631624636e+00  7.7880078307140488e-01  7.7880078307140488e-01  1.0006208631624605e+00  7.7880078307140477e-01  9.3924132703321161e-01  9.3924132703321184e-01  9.3924132703321173e-01  9.3924132703321184e-01  </DataArray> 
</PointData> 
</Piece>
</UnstructuredGrid>
</VTKFile>